phonopy:
  version: 2.6.1
  frequency_unit_conversion_factor: 15.633302
  symmetry_tolerance: 1.00000e-05
  configuration:
    dim: "2 2 2"
    mp: "4 4 4"
    include_all: ".true."

physical_unit:
  atomic_mass: "AMU"
  length: "Angstrom"
  force_constants: "eV/Angstrom^2"

supercell_matrix:
- [   2,   0,   0 ]
- [   0,   2,   0 ]
- [   0,   0,   2 ]

space_group:
  type: "P1"
  number: 1
  Hall_symbol: "P 1"

primitive_cell:
  lattice:
  - [     5.626741347648095,     0.000041670472754,     0.062081577037523 ] # a
  - [    -0.000031755062692,     5.594017113631929,     0.000025464719475 ] # b
  - [     0.057886614678248,    -0.000034293790994,     5.764824353217710 ] # c
  points:
  - symbol: C  # 1
    coordinates: [  0.381262888947155,  0.500025598419022,  0.448257708990916 ]
    mass: 12.010700
  - symbol: N  # 2
    coordinates: [  0.621509256209514,  0.500022451404959,  0.546791503730184 ]
    mass: 14.006700
  - symbol: H  # 3
    coordinates: [  0.398444562068981,  0.500021399388181,  0.258120453980602 ]
    mass: 1.007940
  - symbol: H  # 4
    coordinates: [  0.286255713419614,  0.661454578980873,  0.506871171548191 ]
    mass: 1.007940
  - symbol: H  # 5
    coordinates: [  0.286249594951307,  0.338602840271420,  0.506876771420245 ]
    mass: 1.007940
  - symbol: H  # 6
    coordinates: [  0.718001623897308,  0.651600047999132,  0.495489280423527 ]
    mass: 1.007940
  - symbol: H  # 7
    coordinates: [  0.717997353511095,  0.348440589940786,  0.495491981404683 ]
    mass: 1.007940
  - symbol: H  # 8
    coordinates: [  0.619594404228295,  0.500024225840356,  0.727355704161191 ]
    mass: 1.007940
  - symbol: Pb # 9
    coordinates: [  0.950780957848963,  0.000024930655734,  0.981152658318024 ]
    mass: 207.200000
  - symbol: Cl # 10
    coordinates: [  0.913585818895513,  0.000022370269249,  0.474409946048063 ]
    mass: 35.453000
  - symbol: Cl # 11
    coordinates: [  0.900462983468628,  0.500024874027524,  0.023297321535502 ]
    mass: 35.453000
  - symbol: Cl # 12
    coordinates: [  0.449047246553583,  0.000030913802860,  0.923830668438924 ]
    mass: 35.453000
  reciprocal_lattice: # without 2pi
  - [     0.177742451581120,     0.000001017099402,    -0.001784774026293 ] # a*
  - [    -0.000001335758197,     0.178762413417236,     0.000001076834780 ] # b*
  - [    -0.001914114115289,    -0.000000800592969,     0.173485043130683 ] # c*

unit_cell:
  lattice:
  - [     5.626741347648095,     0.000041670472754,     0.062081577037523 ] # a
  - [    -0.000031755062692,     5.594017113631929,     0.000025464719475 ] # b
  - [     0.057886614678248,    -0.000034293790994,     5.764824353217710 ] # c
  points:
  - symbol: C  # 1
    coordinates: [  0.381262888947155,  0.500025598419022,  0.448257708990916 ]
    mass: 12.010700
    reduced_to: 1
  - symbol: N  # 2
    coordinates: [  0.621509256209514,  0.500022451404959,  0.546791503730184 ]
    mass: 14.006700
    reduced_to: 2
  - symbol: H  # 3
    coordinates: [  0.398444562068981,  0.500021399388181,  0.258120453980602 ]
    mass: 1.007940
    reduced_to: 3
  - symbol: H  # 4
    coordinates: [  0.286255713419614,  0.661454578980873,  0.506871171548191 ]
    mass: 1.007940
    reduced_to: 4
  - symbol: H  # 5
    coordinates: [  0.286249594951307,  0.338602840271420,  0.506876771420245 ]
    mass: 1.007940
    reduced_to: 5
  - symbol: H  # 6
    coordinates: [  0.718001623897308,  0.651600047999132,  0.495489280423527 ]
    mass: 1.007940
    reduced_to: 6
  - symbol: H  # 7
    coordinates: [  0.717997353511095,  0.348440589940786,  0.495491981404683 ]
    mass: 1.007940
    reduced_to: 7
  - symbol: H  # 8
    coordinates: [  0.619594404228295,  0.500024225840356,  0.727355704161191 ]
    mass: 1.007940
    reduced_to: 8
  - symbol: Pb # 9
    coordinates: [  0.950780957848963,  0.000024930655734,  0.981152658318024 ]
    mass: 207.200000
    reduced_to: 9
  - symbol: Cl # 10
    coordinates: [  0.913585818895513,  0.000022370269249,  0.474409946048063 ]
    mass: 35.453000
    reduced_to: 10
  - symbol: Cl # 11
    coordinates: [  0.900462983468628,  0.500024874027524,  0.023297321535502 ]
    mass: 35.453000
    reduced_to: 11
  - symbol: Cl # 12
    coordinates: [  0.449047246553583,  0.000030913802860,  0.923830668438924 ]
    mass: 35.453000
    reduced_to: 12

supercell:
  lattice:
  - [    11.253482695296190,     0.000083340945508,     0.124163154075046 ] # a
  - [    -0.000063510125385,    11.188034227263858,     0.000050929438950 ] # b
  - [     0.115773229356497,    -0.000068587581988,    11.529648706435420 ] # c
  points:
  - symbol: C  # 1
    coordinates: [  0.190631444473578,  0.250012799209511,  0.224128854495458 ]
    mass: 12.010700
    reduced_to: 1
  - symbol: C  # 2
    coordinates: [  0.690631444473578,  0.250012799209511,  0.224128854495458 ]
    mass: 12.010700
    reduced_to: 1
  - symbol: C  # 3
    coordinates: [  0.190631444473578,  0.750012799209511,  0.224128854495458 ]
    mass: 12.010700
    reduced_to: 1
  - symbol: C  # 4
    coordinates: [  0.690631444473578,  0.750012799209511,  0.224128854495458 ]
    mass: 12.010700
    reduced_to: 1
  - symbol: C  # 5
    coordinates: [  0.190631444473578,  0.250012799209511,  0.724128854495458 ]
    mass: 12.010700
    reduced_to: 1
  - symbol: C  # 6
    coordinates: [  0.690631444473578,  0.250012799209511,  0.724128854495458 ]
    mass: 12.010700
    reduced_to: 1
  - symbol: C  # 7
    coordinates: [  0.190631444473578,  0.750012799209511,  0.724128854495458 ]
    mass: 12.010700
    reduced_to: 1
  - symbol: C  # 8
    coordinates: [  0.690631444473578,  0.750012799209511,  0.724128854495458 ]
    mass: 12.010700
    reduced_to: 1
  - symbol: N  # 9
    coordinates: [  0.310754628104757,  0.250011225702480,  0.273395751865092 ]
    mass: 14.006700
    reduced_to: 9
  - symbol: N  # 10
    coordinates: [  0.810754628104757,  0.250011225702480,  0.273395751865092 ]
    mass: 14.006700
    reduced_to: 9
  - symbol: N  # 11
    coordinates: [  0.310754628104757,  0.750011225702480,  0.273395751865092 ]
    mass: 14.006700
    reduced_to: 9
  - symbol: N  # 12
    coordinates: [  0.810754628104757,  0.750011225702480,  0.273395751865092 ]
    mass: 14.006700
    reduced_to: 9
  - symbol: N  # 13
    coordinates: [  0.310754628104757,  0.250011225702480,  0.773395751865092 ]
    mass: 14.006700
    reduced_to: 9
  - symbol: N  # 14
    coordinates: [  0.810754628104757,  0.250011225702480,  0.773395751865092 ]
    mass: 14.006700
    reduced_to: 9
  - symbol: N  # 15
    coordinates: [  0.310754628104757,  0.750011225702480,  0.773395751865092 ]
    mass: 14.006700
    reduced_to: 9
  - symbol: N  # 16
    coordinates: [  0.810754628104757,  0.750011225702480,  0.773395751865092 ]
    mass: 14.006700
    reduced_to: 9
  - symbol: H  # 17
    coordinates: [  0.199222281034491,  0.250010699694091,  0.129060226990301 ]
    mass: 1.007940
    reduced_to: 17
  - symbol: H  # 18
    coordinates: [  0.699222281034491,  0.250010699694091,  0.129060226990301 ]
    mass: 1.007940
    reduced_to: 17
  - symbol: H  # 19
    coordinates: [  0.199222281034491,  0.750010699694091,  0.129060226990301 ]
    mass: 1.007940
    reduced_to: 17
  - symbol: H  # 20
    coordinates: [  0.699222281034491,  0.750010699694091,  0.129060226990301 ]
    mass: 1.007940
    reduced_to: 17
  - symbol: H  # 21
    coordinates: [  0.199222281034491,  0.250010699694091,  0.629060226990301 ]
    mass: 1.007940
    reduced_to: 17
  - symbol: H  # 22
    coordinates: [  0.699222281034491,  0.250010699694091,  0.629060226990301 ]
    mass: 1.007940
    reduced_to: 17
  - symbol: H  # 23
    coordinates: [  0.199222281034491,  0.750010699694091,  0.629060226990301 ]
    mass: 1.007940
    reduced_to: 17
  - symbol: H  # 24
    coordinates: [  0.699222281034491,  0.750010699694091,  0.629060226990301 ]
    mass: 1.007940
    reduced_to: 17
  - symbol: H  # 25
    coordinates: [  0.143127856709807,  0.330727289490437,  0.253435585774096 ]
    mass: 1.007940
    reduced_to: 25
  - symbol: H  # 26
    coordinates: [  0.643127856709807,  0.330727289490437,  0.253435585774096 ]
    mass: 1.007940
    reduced_to: 25
  - symbol: H  # 27
    coordinates: [  0.143127856709807,  0.830727289490437,  0.253435585774096 ]
    mass: 1.007940
    reduced_to: 25
  - symbol: H  # 28
    coordinates: [  0.643127856709807,  0.830727289490437,  0.253435585774096 ]
    mass: 1.007940
    reduced_to: 25
  - symbol: H  # 29
    coordinates: [  0.143127856709807,  0.330727289490437,  0.753435585774096 ]
    mass: 1.007940
    reduced_to: 25
  - symbol: H  # 30
    coordinates: [  0.643127856709807,  0.330727289490437,  0.753435585774096 ]
    mass: 1.007940
    reduced_to: 25
  - symbol: H  # 31
    coordinates: [  0.143127856709807,  0.830727289490437,  0.753435585774096 ]
    mass: 1.007940
    reduced_to: 25
  - symbol: H  # 32
    coordinates: [  0.643127856709807,  0.830727289490437,  0.753435585774096 ]
    mass: 1.007940
    reduced_to: 25
  - symbol: H  # 33
    coordinates: [  0.143124797475654,  0.169301420135710,  0.253438385710123 ]
    mass: 1.007940
    reduced_to: 33
  - symbol: H  # 34
    coordinates: [  0.643124797475654,  0.169301420135710,  0.253438385710123 ]
    mass: 1.007940
    reduced_to: 33
  - symbol: H  # 35
    coordinates: [  0.143124797475654,  0.669301420135710,  0.253438385710123 ]
    mass: 1.007940
    reduced_to: 33
  - symbol: H  # 36
    coordinates: [  0.643124797475654,  0.669301420135710,  0.253438385710123 ]
    mass: 1.007940
    reduced_to: 33
  - symbol: H  # 37
    coordinates: [  0.143124797475654,  0.169301420135710,  0.753438385710123 ]
    mass: 1.007940
    reduced_to: 33
  - symbol: H  # 38
    coordinates: [  0.643124797475654,  0.169301420135710,  0.753438385710123 ]
    mass: 1.007940
    reduced_to: 33
  - symbol: H  # 39
    coordinates: [  0.143124797475654,  0.669301420135710,  0.753438385710123 ]
    mass: 1.007940
    reduced_to: 33
  - symbol: H  # 40
    coordinates: [  0.643124797475654,  0.669301420135710,  0.753438385710123 ]
    mass: 1.007940
    reduced_to: 33
  - symbol: H  # 41
    coordinates: [  0.359000811948654,  0.325800023999566,  0.247744640211764 ]
    mass: 1.007940
    reduced_to: 41
  - symbol: H  # 42
    coordinates: [  0.859000811948654,  0.325800023999566,  0.247744640211764 ]
    mass: 1.007940
    reduced_to: 41
  - symbol: H  # 43
    coordinates: [  0.359000811948654,  0.825800023999566,  0.247744640211764 ]
    mass: 1.007940
    reduced_to: 41
  - symbol: H  # 44
    coordinates: [  0.859000811948654,  0.825800023999566,  0.247744640211764 ]
    mass: 1.007940
    reduced_to: 41
  - symbol: H  # 45
    coordinates: [  0.359000811948654,  0.325800023999566,  0.747744640211764 ]
    mass: 1.007940
    reduced_to: 41
  - symbol: H  # 46
    coordinates: [  0.859000811948654,  0.325800023999566,  0.747744640211764 ]
    mass: 1.007940
    reduced_to: 41
  - symbol: H  # 47
    coordinates: [  0.359000811948654,  0.825800023999566,  0.747744640211764 ]
    mass: 1.007940
    reduced_to: 41
  - symbol: H  # 48
    coordinates: [  0.859000811948654,  0.825800023999566,  0.747744640211764 ]
    mass: 1.007940
    reduced_to: 41
  - symbol: H  # 49
    coordinates: [  0.358998676755547,  0.174220294970393,  0.247745990702342 ]
    mass: 1.007940
    reduced_to: 49
  - symbol: H  # 50
    coordinates: [  0.858998676755547,  0.174220294970393,  0.247745990702342 ]
    mass: 1.007940
    reduced_to: 49
  - symbol: H  # 51
    coordinates: [  0.358998676755547,  0.674220294970393,  0.247745990702342 ]
    mass: 1.007940
    reduced_to: 49
  - symbol: H  # 52
    coordinates: [  0.858998676755547,  0.674220294970393,  0.247745990702342 ]
    mass: 1.007940
    reduced_to: 49
  - symbol: H  # 53
    coordinates: [  0.358998676755547,  0.174220294970393,  0.747745990702342 ]
    mass: 1.007940
    reduced_to: 49
  - symbol: H  # 54
    coordinates: [  0.858998676755547,  0.174220294970393,  0.747745990702342 ]
    mass: 1.007940
    reduced_to: 49
  - symbol: H  # 55
    coordinates: [  0.358998676755547,  0.674220294970393,  0.747745990702342 ]
    mass: 1.007940
    reduced_to: 49
  - symbol: H  # 56
    coordinates: [  0.858998676755547,  0.674220294970393,  0.747745990702342 ]
    mass: 1.007940
    reduced_to: 49
  - symbol: H  # 57
    coordinates: [  0.309797202114147,  0.250012112920178,  0.363677852080595 ]
    mass: 1.007940
    reduced_to: 57
  - symbol: H  # 58
    coordinates: [  0.809797202114147,  0.250012112920178,  0.363677852080595 ]
    mass: 1.007940
    reduced_to: 57
  - symbol: H  # 59
    coordinates: [  0.309797202114147,  0.750012112920178,  0.363677852080595 ]
    mass: 1.007940
    reduced_to: 57
  - symbol: H  # 60
    coordinates: [  0.809797202114147,  0.750012112920178,  0.363677852080595 ]
    mass: 1.007940
    reduced_to: 57
  - symbol: H  # 61
    coordinates: [  0.309797202114147,  0.250012112920178,  0.863677852080595 ]
    mass: 1.007940
    reduced_to: 57
  - symbol: H  # 62
    coordinates: [  0.809797202114147,  0.250012112920178,  0.863677852080595 ]
    mass: 1.007940
    reduced_to: 57
  - symbol: H  # 63
    coordinates: [  0.309797202114147,  0.750012112920178,  0.863677852080595 ]
    mass: 1.007940
    reduced_to: 57
  - symbol: H  # 64
    coordinates: [  0.809797202114147,  0.750012112920178,  0.863677852080595 ]
    mass: 1.007940
    reduced_to: 57
  - symbol: Pb # 65
    coordinates: [  0.475390478924481,  0.000012465327867,  0.490576329159012 ]
    mass: 207.200000
    reduced_to: 65
  - symbol: Pb # 66
    coordinates: [  0.975390478924481,  0.000012465327867,  0.490576329159012 ]
    mass: 207.200000
    reduced_to: 65
  - symbol: Pb # 67
    coordinates: [  0.475390478924481,  0.500012465327867,  0.490576329159012 ]
    mass: 207.200000
    reduced_to: 65
  - symbol: Pb # 68
    coordinates: [  0.975390478924481,  0.500012465327867,  0.490576329159012 ]
    mass: 207.200000
    reduced_to: 65
  - symbol: Pb # 69
    coordinates: [  0.475390478924481,  0.000012465327867,  0.990576329159012 ]
    mass: 207.200000
    reduced_to: 65
  - symbol: Pb # 70
    coordinates: [  0.975390478924481,  0.000012465327867,  0.990576329159012 ]
    mass: 207.200000
    reduced_to: 65
  - symbol: Pb # 71
    coordinates: [  0.475390478924481,  0.500012465327867,  0.990576329159012 ]
    mass: 207.200000
    reduced_to: 65
  - symbol: Pb # 72
    coordinates: [  0.975390478924481,  0.500012465327867,  0.990576329159012 ]
    mass: 207.200000
    reduced_to: 65
  - symbol: Cl # 73
    coordinates: [  0.456792909447756,  0.000011185134625,  0.237204973024031 ]
    mass: 35.453000
    reduced_to: 73
  - symbol: Cl # 74
    coordinates: [  0.956792909447756,  0.000011185134625,  0.237204973024031 ]
    mass: 35.453000
    reduced_to: 73
  - symbol: Cl # 75
    coordinates: [  0.456792909447756,  0.500011185134625,  0.237204973024031 ]
    mass: 35.453000
    reduced_to: 73
  - symbol: Cl # 76
    coordinates: [  0.956792909447756,  0.500011185134625,  0.237204973024031 ]
    mass: 35.453000
    reduced_to: 73
  - symbol: Cl # 77
    coordinates: [  0.456792909447756,  0.000011185134625,  0.737204973024031 ]
    mass: 35.453000
    reduced_to: 73
  - symbol: Cl # 78
    coordinates: [  0.956792909447756,  0.000011185134625,  0.737204973024031 ]
    mass: 35.453000
    reduced_to: 73
  - symbol: Cl # 79
    coordinates: [  0.456792909447756,  0.500011185134625,  0.737204973024031 ]
    mass: 35.453000
    reduced_to: 73
  - symbol: Cl # 80
    coordinates: [  0.956792909447756,  0.500011185134625,  0.737204973024031 ]
    mass: 35.453000
    reduced_to: 73
  - symbol: Cl # 81
    coordinates: [  0.450231491734314,  0.250012437013762,  0.011648660767751 ]
    mass: 35.453000
    reduced_to: 81
  - symbol: Cl # 82
    coordinates: [  0.950231491734314,  0.250012437013762,  0.011648660767751 ]
    mass: 35.453000
    reduced_to: 81
  - symbol: Cl # 83
    coordinates: [  0.450231491734314,  0.750012437013762,  0.011648660767751 ]
    mass: 35.453000
    reduced_to: 81
  - symbol: Cl # 84
    coordinates: [  0.950231491734314,  0.750012437013762,  0.011648660767751 ]
    mass: 35.453000
    reduced_to: 81
  - symbol: Cl # 85
    coordinates: [  0.450231491734314,  0.250012437013762,  0.511648660767751 ]
    mass: 35.453000
    reduced_to: 81
  - symbol: Cl # 86
    coordinates: [  0.950231491734314,  0.250012437013762,  0.511648660767751 ]
    mass: 35.453000
    reduced_to: 81
  - symbol: Cl # 87
    coordinates: [  0.450231491734314,  0.750012437013762,  0.511648660767751 ]
    mass: 35.453000
    reduced_to: 81
  - symbol: Cl # 88
    coordinates: [  0.950231491734314,  0.750012437013762,  0.511648660767751 ]
    mass: 35.453000
    reduced_to: 81
  - symbol: Cl # 89
    coordinates: [  0.224523623276792,  0.000015456901430,  0.461915334219462 ]
    mass: 35.453000
    reduced_to: 89
  - symbol: Cl # 90
    coordinates: [  0.724523623276792,  0.000015456901430,  0.461915334219462 ]
    mass: 35.453000
    reduced_to: 89
  - symbol: Cl # 91
    coordinates: [  0.224523623276792,  0.500015456901430,  0.461915334219462 ]
    mass: 35.453000
    reduced_to: 89
  - symbol: Cl # 92
    coordinates: [  0.724523623276792,  0.500015456901430,  0.461915334219462 ]
    mass: 35.453000
    reduced_to: 89
  - symbol: Cl # 93
    coordinates: [  0.224523623276792,  0.000015456901430,  0.961915334219462 ]
    mass: 35.453000
    reduced_to: 89
  - symbol: Cl # 94
    coordinates: [  0.724523623276792,  0.000015456901430,  0.961915334219462 ]
    mass: 35.453000
    reduced_to: 89
  - symbol: Cl # 95
    coordinates: [  0.224523623276792,  0.500015456901430,  0.961915334219462 ]
    mass: 35.453000
    reduced_to: 89
  - symbol: Cl # 96
    coordinates: [  0.724523623276792,  0.500015456901430,  0.961915334219462 ]
    mass: 35.453000
    reduced_to: 89

displacements:
- atom:    1
  displacement:
    [   0.0099993913857332,  0.0000000740534069,  0.0001103263769004 ]
  forces:
  - [  -0.4577452000000000, -0.0000030700000000,  0.0351627800000000 ]
  - [   0.0004659600000000,  0.0000014000000000, -0.0002377500000000 ]
  - [   0.0000363000000000, -0.0000005500000000, -0.0003342000000000 ]
  - [   0.0003567100000000,  0.0000006200000000, -0.0003184800000000 ]
  - [   0.0002256100000000,  0.0000003200000000, -0.0003097800000000 ]
  - [   0.0003171000000000,  0.0000011600000000, -0.0002605800000000 ]
  - [   0.0002299800000000,  0.0000013400000000, -0.0003277700000000 ]
  - [   0.0003022400000000,  0.0000017700000000, -0.0003019900000000 ]
  - [   0.1801388100000000,  0.0000005600000000,  0.0410107400000000 ]
  - [  -0.0005705700000000,  0.0000005700000000,  0.0000447600000000 ]
  - [  -0.0001541600000000, -0.0000004000000000,  0.0000621900000000 ]
  - [  -0.0005472000000000,  0.0000008200000000,  0.0001191400000000 ]
  - [  -0.0002555600000000,  0.0000017800000000,  0.0000585400000000 ]
  - [  -0.0004649800000000, -0.0000002100000000,  0.0000293200000000 ]
  - [  -0.0002891800000000,  0.0000013000000000,  0.0000626500000000 ]
  - [  -0.0004113400000000,  0.0000008300000000,  0.0000519100000000 ]
  - [   0.0456099000000000, -0.0000001900000000, -0.0180224100000000 ]
  - [   0.0008131800000000, -0.0000000500000000, -0.0006576200000000 ]
  - [   0.0008409000000000, -0.0000005500000000, -0.0006365500000000 ]
  - [   0.0008396100000000, -0.0000002700000000, -0.0006634800000000 ]
  - [   0.0007733600000000, -0.0000003200000000, -0.0006357100000000 ]
  - [   0.0009143500000000, -0.0000001500000000, -0.0006648300000000 ]
  - [   0.0008366700000000, -0.0000002900000000, -0.0006519600000000 ]
  - [   0.0008486800000000, -0.0000000800000000, -0.0006575600000000 ]
  - [   0.0960174900000000, -0.0995437200000000, -0.0399420900000000 ]
  - [  -0.0000443100000000,  0.0002014000000000, -0.0007274100000000 ]
  - [  -0.0000381400000000,  0.0002300800000000, -0.0007446700000000 ]
  - [  -0.0000558300000000,  0.0001257700000000, -0.0006917600000000 ]
  - [  -0.0000858200000000,  0.0001459600000000, -0.0007070600000000 ]
  - [  -0.0000858400000000,  0.0001591100000000, -0.0006873800000000 ]
  - [  -0.0000857400000000,  0.0001512000000000, -0.0006935600000000 ]
  - [  -0.0000899300000000,  0.0001443100000000, -0.0007023700000000 ]
  - [   0.0960246100000000,  0.0995432500000000, -0.0399480900000000 ]
  - [  -0.0000435900000000, -0.0002069100000000, -0.0007280000000000 ]
  - [  -0.0000373400000000, -0.0002358900000000, -0.0007453400000000 ]
  - [  -0.0000550800000000, -0.0001315300000000, -0.0006922600000000 ]
  - [  -0.0000849200000000, -0.0001511200000000, -0.0007078900000000 ]
  - [  -0.0000849800000000, -0.0001645200000000, -0.0006879900000000 ]
  - [  -0.0000847900000000, -0.0001566000000000, -0.0006943600000000 ]
  - [  -0.0000891900000000, -0.0001498500000000, -0.0007028400000000 ]
  - [   0.0195924900000000,  0.0016460300000000,  0.0079735800000000 ]
  - [   0.0001901800000000, -0.0001581300000000,  0.0005976600000000 ]
  - [  -0.0002339400000000, -0.0003660700000000,  0.0006416900000000 ]
  - [   0.0000604400000000,  0.0000322400000000,  0.0005810900000000 ]
  - [  -0.0001021600000000, -0.0001201300000000,  0.0007124400000000 ]
  - [   0.0000032100000000, -0.0001282200000000,  0.0006039900000000 ]
  - [  -0.0000929800000000, -0.0002024300000000,  0.0006527900000000 ]
  - [  -0.0000062900000000, -0.0001242800000000,  0.0006219800000000 ]
  - [   0.0195936700000000, -0.0016427700000000,  0.0079701600000000 ]
  - [   0.0001922000000000,  0.0001622700000000,  0.0005946300000000 ]
  - [  -0.0002316200000000,  0.0003685600000000,  0.0006385100000000 ]
  - [   0.0000629300000000, -0.0000295800000000,  0.0005779500000000 ]
  - [  -0.0001003700000000,  0.0001244500000000,  0.0007093400000000 ]
  - [   0.0000053900000000,  0.0001316100000000,  0.0006007500000000 ]
  - [  -0.0000904900000000,  0.0002053700000000,  0.0006498700000000 ]
  - [  -0.0000037800000000,  0.0001269600000000,  0.0006188800000000 ]
  - [  -0.0000541700000000, -0.0000007300000000,  0.0056341700000000 ]
  - [  -0.0005447200000000, -0.0000006700000000,  0.0000959800000000 ]
  - [  -0.0006897900000000, -0.0000011100000000,  0.0000836000000000 ]
  - [  -0.0006135400000000, -0.0000010000000000,  0.0001065000000000 ]
  - [  -0.0007560700000000, -0.0000004300000000,  0.0001940600000000 ]
  - [  -0.0006123500000000, -0.0000007300000000,  0.0001371300000000 ]
  - [  -0.0007109400000000, -0.0000010700000000,  0.0001066700000000 ]
  - [  -0.0006123900000000, -0.0000010000000000,  0.0001477200000000 ]
  - [   0.0000889000000000, -0.0008846900000000,  0.0006993800000000 ]
  - [   0.0002611000000000,  0.0004075800000000, -0.0003064900000000 ]
  - [   0.0000887100000000,  0.0008870300000000,  0.0006999400000000 ]
  - [   0.0002614600000000, -0.0004052800000000, -0.0003069500000000 ]
  - [  -0.0001853200000000, -0.0001007000000000, -0.0003101900000000 ]
  - [   0.0004511000000000,  0.0002124000000000,  0.0006485600000000 ]
  - [  -0.0001854600000000,  0.0001029700000000, -0.0003105600000000 ]
  - [   0.0004514400000000, -0.0002101700000000,  0.0006491100000000 ]
  - [  -0.0007700200000000,  0.0014098200000000,  0.0004272000000000 ]
  - [   0.0001729200000000,  0.0003115000000000,  0.0003647400000000 ]
  - [  -0.0007701100000000, -0.0014001500000000,  0.0004272600000000 ]
  - [   0.0001735800000000, -0.0003021800000000,  0.0003647100000000 ]
  - [   0.0001483600000000,  0.0000826100000000,  0.0001677800000000 ]
  - [   0.0000473600000000,  0.0000002600000000,  0.0002829900000000 ]
  - [   0.0001487600000000, -0.0000726500000000,  0.0001674500000000 ]
  - [   0.0000472300000000,  0.0000089000000000,  0.0002826100000000 ]
  - [   0.0006693200000000,  0.0000010900000000,  0.0006772500000000 ]
  - [   0.0007010500000000,  0.0000009300000000,  0.0004947200000000 ]
  - [   0.0001451400000000,  0.0000025200000000,  0.0003512500000000 ]
  - [   0.0000108600000000,  0.0000026800000000,  0.0002474200000000 ]
  - [  -0.0011736400000000,  0.0000013900000000, -0.0012391000000000 ]
  - [  -0.0000312700000000,  0.0000011700000000,  0.0004025200000000 ]
  - [   0.0001500200000000,  0.0000020600000000,  0.0002100400000000 ]
  - [   0.0000416800000000,  0.0000020100000000,  0.0002902800000000 ]
  - [   0.0006918700000000,  0.0002604300000000,  0.0003428200000000 ]
  - [  -0.0003319400000000,  0.0000095400000000,  0.0001910200000000 ]
  - [   0.0006926300000000, -0.0002725200000000,  0.0003430800000000 ]
  - [  -0.0003319200000000, -0.0000215100000000,  0.0001917100000000 ]
  - [   0.0001997300000000, -0.0002100200000000, -0.0000863300000000 ]
  - [  -0.0002482300000000, -0.0000056400000000,  0.0001768900000000 ]
  - [   0.0001999700000000,  0.0001982900000000, -0.0000870100000000 ]
  - [  -0.0002479600000000, -0.0000061200000000,  0.0001764800000000 ]
- atom:    1
  displacement:
    [  -0.0099993913857332, -0.0000000740534069, -0.0001103263769004 ]
  forces:
  - [   0.4454431300000000,  0.0000066100000000, -0.0461515200000000 ]
  - [   0.0000685200000000,  0.0000015000000000, -0.0003932200000000 ]
  - [   0.0004968500000000, -0.0000004100000000, -0.0003011800000000 ]
  - [   0.0001731600000000,  0.0000006000000000, -0.0003195100000000 ]
  - [   0.0003036500000000,  0.0000001500000000, -0.0003233300000000 ]
  - [   0.0002163500000000,  0.0000008700000000, -0.0003687600000000 ]
  - [   0.0003015800000000,  0.0000013800000000, -0.0003036100000000 ]
  - [   0.0002227500000000,  0.0000018700000000, -0.0003316200000000 ]
  - [  -0.1696316100000000,  0.0000009000000000, -0.0359649900000000 ]
  - [  -0.0001840400000000,  0.0000006100000000,  0.0000870500000000 ]
  - [  -0.0005893300000000, -0.0000002200000000,  0.0000762400000000 ]
  - [  -0.0001927700000000,  0.0000008800000000,  0.0000222000000000 ]
  - [  -0.0004836100000000,  0.0000018100000000,  0.0000826300000000 ]
  - [  -0.0002772100000000, -0.0000005500000000,  0.0001086800000000 ]
  - [  -0.0004512800000000,  0.0000016300000000,  0.0000766300000000 ]
  - [  -0.0003155800000000,  0.0000009800000000,  0.0000937700000000 ]
  - [  -0.0440392200000000, -0.0000002100000000,  0.0188267200000000 ]
  - [   0.0008656400000000, -0.0000000100000000, -0.0006435400000000 ]
  - [   0.0008395600000000, -0.0000005400000000, -0.0006695100000000 ]
  - [   0.0008396700000000, -0.0000003500000000, -0.0006456500000000 ]
  - [   0.0009057200000000, -0.0000003200000000, -0.0006692900000000 ]
  - [   0.0007661000000000, -0.0000001900000000, -0.0006389500000000 ]
  - [   0.0008429200000000, -0.0000002700000000, -0.0006525600000000 ]
  - [   0.0008308700000000, -0.0000000400000000, -0.0006508400000000 ]
  - [  -0.0959676400000000,  0.1028443100000000,  0.0399172000000000 ]
  - [  -0.0001426500000000,  0.0000830600000000, -0.0006891000000000 ]
  - [  -0.0001485900000000,  0.0000601800000000, -0.0006708500000000 ]
  - [  -0.0001341100000000,  0.0001659500000000, -0.0007233200000000 ]
  - [  -0.0001020400000000,  0.0001430400000000, -0.0007086600000000 ]
  - [  -0.0001014400000000,  0.0001285200000000, -0.0007286300000000 ]
  - [  -0.0001025000000000,  0.0001374000000000, -0.0007214100000000 ]
  - [  -0.0000998100000000,  0.0001461900000000, -0.0007122500000000 ]
  - [  -0.0959735600000000, -0.1028560000000000,  0.0399224200000000 ]
  - [  -0.0001419800000000, -0.0000886100000000, -0.0006897000000000 ]
  - [  -0.0001478100000000, -0.0000659000000000, -0.0006715000000000 ]
  - [  -0.0001334300000000, -0.0001717400000000, -0.0007238000000000 ]
  - [  -0.0001011400000000, -0.0001482000000000, -0.0007094800000000 ]
  - [  -0.0001006100000000, -0.0001339200000000, -0.0007292500000000 ]
  - [  -0.0001015000000000, -0.0001427600000000, -0.0007222500000000 ]
  - [  -0.0000990500000000, -0.0001516700000000, -0.0007126900000000 ]
  - [  -0.0190486200000000, -0.0017690100000000, -0.0065208400000000 ]
  - [  -0.0002524900000000, -0.0001363000000000,  0.0006510700000000 ]
  - [   0.0001752900000000,  0.0000639200000000,  0.0006045300000000 ]
  - [  -0.0001195000000000, -0.0003363500000000,  0.0006657600000000 ]
  - [   0.0000469500000000, -0.0001769800000000,  0.0005338800000000 ]
  - [  -0.0000626400000000, -0.0001730700000000,  0.0006430600000000 ]
  - [   0.0000327000000000, -0.0001022400000000,  0.0005951200000000 ]
  - [  -0.0000497200000000, -0.0001768700000000,  0.0006257200000000 ]
  - [  -0.0190454600000000,  0.0017731900000000, -0.0065235100000000 ]
  - [  -0.0002504800000000,  0.0001405300000000,  0.0006480400000000 ]
  - [   0.0001775900000000, -0.0000613600000000,  0.0006013400000000 ]
  - [  -0.0001169800000000,  0.0003388600000000,  0.0006626300000000 ]
  - [   0.0000487000000000,  0.0001813500000000,  0.0005307700000000 ]
  - [  -0.0000605400000000,  0.0001764900000000,  0.0006398500000000 ]
  - [   0.0000352700000000,  0.0001051500000000,  0.0005921500000000 ]
  - [  -0.0000471700000000,  0.0001795400000000,  0.0006226400000000 ]
  - [  -0.0012030600000000, -0.0000007600000000, -0.0052596600000000 ]
  - [  -0.0007484000000000, -0.0000006500000000,  0.0001318800000000 ]
  - [  -0.0006041300000000, -0.0000011000000000,  0.0001393500000000 ]
  - [  -0.0006786400000000, -0.0000010000000000,  0.0001182400000000 ]
  - [  -0.0005368700000000, -0.0000004200000000,  0.0000370000000000 ]
  - [  -0.0006878400000000, -0.0000007400000000,  0.0000773300000000 ]
  - [  -0.0005818900000000, -0.0000010400000000,  0.0001157400000000 ]
  - [  -0.0006800700000000, -0.0000010200000000,  0.0000797400000000 ]
  - [  -0.0000477500000000,  0.0008908600000000, -0.0003241600000000 ]
  - [  -0.0002023900000000, -0.0004044900000000,  0.0006869700000000 ]
  - [  -0.0000478800000000, -0.0008884900000000, -0.0003234200000000 ]
  - [  -0.0002021400000000,  0.0004067700000000,  0.0006864000000000 ]
  - [   0.0002300600000000,  0.0001007900000000,  0.0006923300000000 ]
  - [  -0.0003976000000000, -0.0002323200000000, -0.0002770900000000 ]
  - [   0.0002300400000000, -0.0000985100000000,  0.0006917400000000 ]